LIGGGHTS (Version LIGGGHTS-PUBLIC 3.8.0, compiled 2023-04-07-08:15:51 by pc, git commit 78f1a0277ef1f4f8ec5be8ad2f9715aa0ca5796c)
echo                    both
log                     ../DEM/log_run.txt
