thermo_log              ../DEM/log_thermo.txt

#变量定义
variable            xmin           equal   0.0
variable            xmax           equal   0.1
variable            ymin           equal   0.0
variable            ymax           equal   0.1
variable            zmin           equal   0.2
variable            zmax           equal   0.4

variable            posx           equal   ${xmax}/2
variable            posx           equal   0.1/2
variable            posy           equal   ${ymax}/2
variable            posy           equal   0.1/2
variable            posz           equal   0.32


variable            vx             equal   0.0
variable            vy             equal   0.0
variable            vz             equal   0.0

variable            rhop           equal   1400

variable            timestep       equal   0.00001
variable            outSteps       equal   1000
##################################################

atom_style          granular
atom_modify         map array
communicate         single vel yes

boundary            f f f
newton              off

units               si
processors          1 1 4

region              reg block ${xmin} ${xmax} ${ymin} ${ymax} ${zmin} ${zmax} units box
region              reg block 0 ${xmax} ${ymin} ${ymax} ${zmin} ${zmax} units box
region              reg block 0 0.1 ${ymin} ${ymax} ${zmin} ${zmax} units box
region              reg block 0 0.1 0 ${ymax} ${zmin} ${zmax} units box
region              reg block 0 0.1 0 0.1 ${zmin} ${zmax} units box
region              reg block 0 0.1 0 0.1 0.2 ${zmax} units box
region              reg block 0 0.1 0 0.1 0.2 0.4 units box
create_box          1 reg
Created orthogonal box = (0 0 0.2) to (0.1 0.1 0.4)
  1 by 1 by 4 MPI processor grid

neighbor            0.001 bin
# neigh_modify        delay 0
neigh_modify        delay 1000
#binsize 0.001

# Material properties required for new pair styles

fix                 m1 all property/global youngsModulus peratomtype 5.e7
fix                 m2 all property/global poissonsRatio peratomtype 0.45
fix                 m3 all property/global coefficientRestitution peratomtypepair 1 0.3
fix                 m4 all property/global coefficientFriction peratomtypepair 1 0.5

# pair style
pair_style          gran model hertz tangential history
# Hertzian without cohesion
pair_coeff          * *

# timestep, gravity
timestep            ${timestep}
timestep            1e-05

fix                 gravi all gravity 9.81 vector 0.0 0.0 -1.0

# walls
fix                 xwalls1 all wall/gran model hertz tangential history primitive type 1 xplane 0.0
fix                 xwalls2 all wall/gran model hertz tangential history primitive type 1 xplane 0.1
fix                 ywalls1 all wall/gran model hertz tangential history primitive type 1 yplane 0.0
fix                 ywalls2 all wall/gran model hertz tangential history primitive type 1 yplane 0.1
fix                 zwalls1 all wall/gran model hertz tangential history primitive type 1 zplane 0.2
# fix                 zwalls2 all wall/gran model hertz tangential history primitive type 1 zplane ${zmax}

# cfd coupling
fix                 cfd  all couple/cfd couple_every 100 mpi
couple_every as specified in LIGGGHTS is overriden by calling external program (../fix_cfd_coupling.cpp:114)
fix                 cfd2 all couple/cfd/force

#create single partciles
create_atoms       1 single 0.05 0.05 0.32  units box
Created 1 atoms
set                atom 1 diameter 0.02 density 1500 vx 0 vy 0 vz 0
  1 settings made for diameter
  1 settings made for density
  1 settings made for vx
  1 settings made for vy
  1 settings made for vz

#apply nve integration to all particles that are inserted as single particles
fix                 integr all nve/sphere

# screen output
compute             rke all erotate/sphere
thermo_style        custom step atoms ke c_rke vol
thermo              1000
thermo_modify       lost ignore norm no
compute_modify      thermo_temp dynamic yes
WARNING: Changing thermo_temp compute object. This object is deprecated and will be removed in the future. (../compute.cpp:161)

# output every N steps
dump                dmp all custom ${outSteps} ../DEM/post/dump*.liggghts                     id type x y z ix iy iz vx vy vz fx fy fz                     omegax omegay omegaz radius
dump                dmp all custom 1000 ../DEM/post/dump*.liggghts                     id type x y z ix iy iz vx vy vz fx fy fz                     omegax omegay omegaz radius
                    # cluster

run                 1
WARNING: It is heavily recommended to use 'neigh_modify delay 0' with granular pair styles (../pair_gran.cpp:237)
Setting up run at Fri Mar 17 03:39:09 2023

Memory usage per processor = 4.24111 Mbytes
    Step    Atoms         KinEng            rke         Volume 
       0        1              0              0          0.002 
       1        1  3.0233462e-11              0          0.002 
Loop time of 1.6433e-05 on 4 procs for 1 steps with 1 atoms, finish time Fri Mar 17 03:39:09 2023


Pair  time (%) = 5.7875e-07 (3.52188)
Neigh time (%) = 0 (0)
Comm  time (%) = 1.521e-06 (9.25577)
Outpt time (%) = 8.05875e-06 (49.04)
Other time (%) = 6.2745e-06 (38.1823)

Nlocal:    0.25 ave 1 max 0 min
Histogram: 3 0 0 0 0 0 0 0 0 1
Nghost:    0.25 ave 1 max 0 min
Histogram: 3 0 0 0 0 0 0 0 0 1
Neighs:    0 ave 0 max 0 min
Histogram: 4 0 0 0 0 0 0 0 0 0

Total # of neighbors = 0
Ave neighs/atom = 0
Neighbor list builds = 0
Dangerous builds = 0

run 100    
WARNING: It is heavily recommended to use 'neigh_modify delay 0' with granular pair styles (../pair_gran.cpp:237)
Setting up run at Fri Mar 17 03:39:09 2023

Memory usage per processor = 4.24112 Mbytes
    Step    Atoms         KinEng            rke         Volume 
       1        1  3.0233462e-11              0          0.002 
CFD Coupling established at step 100
     101        1  3.0841155e-07              0          0.002 
Loop time of 0.000151946 on 4 procs for 100 steps with 1 atoms, finish time Fri Mar 17 03:39:09 2023


Pair  time (%) = 1.90272e-05 (12.5224)
Neigh time (%) = 0 (0)
Comm  time (%) = 3.07035e-05 (20.2068)
Outpt time (%) = 3.34478e-05 (22.0129)
Other time (%) = 6.87677e-05 (45.2579)

Nlocal:    0.25 ave 1 max 0 min
Histogram: 3 0 0 0 0 0 0 0 0 1
Nghost:    0.25 ave 1 max 0 min
Histogram: 3 0 0 0 0 0 0 0 0 1
Neighs:    0 ave 0 max 0 min
Histogram: 4 0 0 0 0 0 0 0 0 0

Total # of neighbors = 0
Ave neighs/atom = 0
Neighbor list builds = 0
Dangerous builds = 0
run 100    
WARNING: It is heavily recommended to use 'neigh_modify delay 0' with granular pair styles (../pair_gran.cpp:237)
Setting up run at Fri Mar 17 03:39:11 2023

Memory usage per processor = 4.24112 Mbytes
    Step    Atoms         KinEng            rke         Volume 
     101        1  3.0841155e-07              0          0.002 
CFD Coupling established at step 200
     201        1  1.2204905e-06  1.7580014e-43          0.002 
Loop time of 0.000133445 on 4 procs for 100 steps with 1 atoms, finish time Fri Mar 17 03:39:11 2023


Pair  time (%) = 2.19205e-05 (16.4266)
Neigh time (%) = 0 (0)
Comm  time (%) = 2.31795e-05 (17.3701)
Outpt time (%) = 3.06965e-05 (23.0032)
Other time (%) = 5.76482e-05 (43.2001)

Nlocal:    0.25 ave 1 max 0 min
Histogram: 3 0 0 0 0 0 0 0 0 1
Nghost:    0.25 ave 1 max 0 min
Histogram: 3 0 0 0 0 0 0 0 0 1
Neighs:    0 ave 0 max 0 min
Histogram: 4 0 0 0 0 0 0 0 0 0

Total # of neighbors = 0
Ave neighs/atom = 0
Neighbor list builds = 0
Dangerous builds = 0
run 100    
WARNING: It is heavily recommended to use 'neigh_modify delay 0' with granular pair styles (../pair_gran.cpp:237)
Setting up run at Fri Mar 17 03:39:13 2023

Memory usage per processor = 4.24112 Mbytes
    Step    Atoms         KinEng            rke         Volume 
     201        1  1.2204905e-06  1.7580014e-43          0.002 
CFD Coupling established at step 300
     301        1   2.736128e-06  3.5459066e-25          0.002 
Loop time of 0.000211149 on 4 procs for 100 steps with 1 atoms, finish time Fri Mar 17 03:39:13 2023


Pair  time (%) = 3.22653e-05 (15.2808)
Neigh time (%) = 0 (0)
Comm  time (%) = 3.71633e-05 (17.6005)
Outpt time (%) = 7.59967e-05 (35.992)
Other time (%) = 6.57237e-05 (31.1267)

Nlocal:    0.25 ave 1 max 0 min
Histogram: 3 0 0 0 0 0 0 0 0 1
Nghost:    0.25 ave 1 max 0 min
Histogram: 3 0 0 0 0 0 0 0 0 1
Neighs:    0 ave 0 max 0 min
Histogram: 4 0 0 0 0 0 0 0 0 0

Total # of neighbors = 0
Ave neighs/atom = 0
Neighbor list builds = 0
Dangerous builds = 0
run 100    
WARNING: It is heavily recommended to use 'neigh_modify delay 0' with granular pair styles (../pair_gran.cpp:237)
Setting up run at Fri Mar 17 03:39:15 2023

Memory usage per processor = 4.24112 Mbytes
    Step    Atoms         KinEng            rke         Volume 
     301        1   2.736128e-06  3.5459066e-25          0.002 
CFD Coupling established at step 400
     401        1  4.8552565e-06  1.8272625e-24          0.002 
Loop time of 8.48802e-05 on 4 procs for 100 steps with 1 atoms, finish time Fri Mar 17 03:39:15 2023


Pair  time (%) = 1.08978e-05 (12.839)
Neigh time (%) = 0 (0)
Comm  time (%) = 1.33282e-05 (15.7024)
Outpt time (%) = 3.5912e-05 (42.309)
Other time (%) = 2.47422e-05 (29.1496)

Nlocal:    0.25 ave 1 max 0 min
Histogram: 3 0 0 0 0 0 0 0 0 1
Nghost:    0.25 ave 1 max 0 min
Histogram: 3 0 0 0 0 0 0 0 0 1
Neighs:    0 ave 0 max 0 min
Histogram: 4 0 0 0 0 0 0 0 0 0

Total # of neighbors = 0
Ave neighs/atom = 0
Neighbor list builds = 0
Dangerous builds = 0
run 100    
WARNING: It is heavily recommended to use 'neigh_modify delay 0' with granular pair styles (../pair_gran.cpp:237)
Setting up run at Fri Mar 17 03:39:17 2023

Memory usage per processor = 4.24112 Mbytes
    Step    Atoms         KinEng            rke         Volume 
     401        1  4.8552565e-06  1.8272625e-24          0.002 
CFD Coupling established at step 500
     501        1  7.5778184e-06  4.5412383e-24          0.002 
Loop time of 7.32105e-05 on 4 procs for 100 steps with 1 atoms, finish time Fri Mar 17 03:39:17 2023


Pair  time (%) = 1.11833e-05 (15.2755)
Neigh time (%) = 0 (0)
Comm  time (%) = 1.46522e-05 (20.0139)
Outpt time (%) = 2.25428e-05 (30.7917)
Other time (%) = 2.48322e-05 (33.919)

Nlocal:    0.25 ave 1 max 0 min
Histogram: 3 0 0 0 0 0 0 0 0 1
Nghost:    0.25 ave 1 max 0 min
Histogram: 3 0 0 0 0 0 0 0 0 1
Neighs:    0 ave 0 max 0 min
Histogram: 4 0 0 0 0 0 0 0 0 0

Total # of neighbors = 0
Ave neighs/atom = 0
Neighbor list builds = 0
Dangerous builds = 0
run 100    
WARNING: It is heavily recommended to use 'neigh_modify delay 0' with granular pair styles (../pair_gran.cpp:237)
Setting up run at Fri Mar 17 03:39:20 2023

Memory usage per processor = 4.24112 Mbytes
    Step    Atoms         KinEng            rke         Volume 
     501        1  7.5778184e-06  4.5412383e-24          0.002 
CFD Coupling established at step 600
     601        1  1.0903722e-05  6.3243655e-25          0.002 
Loop time of 9.66428e-05 on 4 procs for 100 steps with 1 atoms, finish time Fri Mar 17 03:39:20 2023


Pair  time (%) = 1.06012e-05 (10.9695)
Neigh time (%) = 0 (0)
Comm  time (%) = 2.5773e-05 (26.6683)
Outpt time (%) = 2.43197e-05 (25.1646)
Other time (%) = 3.59488e-05 (37.1976)

Nlocal:    0.25 ave 1 max 0 min
Histogram: 3 0 0 0 0 0 0 0 0 1
Nghost:    0.25 ave 1 max 0 min
Histogram: 3 0 0 0 0 0 0 0 0 1
Neighs:    0 ave 0 max 0 min
Histogram: 4 0 0 0 0 0 0 0 0 0

Total # of neighbors = 0
Ave neighs/atom = 0
Neighbor list builds = 0
Dangerous builds = 0
run 100    
WARNING: It is heavily recommended to use 'neigh_modify delay 0' with granular pair styles (../pair_gran.cpp:237)
Setting up run at Fri Mar 17 03:39:22 2023

Memory usage per processor = 4.24112 Mbytes
    Step    Atoms         KinEng            rke         Volume 
     601        1  1.0903722e-05  6.3243655e-25          0.002 
CFD Coupling established at step 700
     701        1  1.4832938e-05  7.7537476e-23          0.002 
Loop time of 0.000102142 on 4 procs for 100 steps with 1 atoms, finish time Fri Mar 17 03:39:22 2023


Pair  time (%) = 1.08212e-05 (10.5944)
Neigh time (%) = 0 (0)
Comm  time (%) = 1.7481e-05 (17.1145)
Outpt time (%) = 4.1132e-05 (40.2696)
Other time (%) = 3.27072e-05 (32.0215)

Nlocal:    0.25 ave 1 max 0 min
Histogram: 3 0 0 0 0 0 0 0 0 1
Nghost:    0.25 ave 1 max 0 min
Histogram: 3 0 0 0 0 0 0 0 0 1
Neighs:    0 ave 0 max 0 min
Histogram: 4 0 0 0 0 0 0 0 0 0

Total # of neighbors = 0
Ave neighs/atom = 0
Neighbor list builds = 0
Dangerous builds = 0
run 100    
WARNING: It is heavily recommended to use 'neigh_modify delay 0' with granular pair styles (../pair_gran.cpp:237)
Setting up run at Fri Mar 17 03:39:24 2023

Memory usage per processor = 4.24112 Mbytes
    Step    Atoms         KinEng            rke         Volume 
     701        1  1.4832938e-05  7.7537476e-23          0.002 
CFD Coupling established at step 800
     801        1  1.9365579e-05  1.6580359e-23          0.002 
Loop time of 6.68255e-05 on 4 procs for 100 steps with 1 atoms, finish time Fri Mar 17 03:39:24 2023


Pair  time (%) = 1.07332e-05 (16.0616)
Neigh time (%) = 0 (0)
Comm  time (%) = 1.35973e-05 (20.3474)
Outpt time (%) = 1.80968e-05 (27.0806)
Other time (%) = 2.43982e-05 (36.5104)

Nlocal:    0.25 ave 1 max 0 min
Histogram: 3 0 0 0 0 0 0 0 0 1
Nghost:    0.25 ave 1 max 0 min
Histogram: 3 0 0 0 0 0 0 0 0 1
Neighs:    0 ave 0 max 0 min
Histogram: 4 0 0 0 0 0 0 0 0 0

Total # of neighbors = 0
Ave neighs/atom = 0
Neighbor list builds = 0
Dangerous builds = 0
run 100    
WARNING: It is heavily recommended to use 'neigh_modify delay 0' with granular pair styles (../pair_gran.cpp:237)
Setting up run at Fri Mar 17 03:39:26 2023

Memory usage per processor = 4.24112 Mbytes
    Step    Atoms         KinEng            rke         Volume 
     801        1  1.9365579e-05  1.6580359e-23          0.002 
CFD Coupling established at step 900
     901        1  2.4501425e-05   7.701945e-23          0.002 
Loop time of 9.69493e-05 on 4 procs for 100 steps with 1 atoms, finish time Fri Mar 17 03:39:26 2023


Pair  time (%) = 1.5113e-05 (15.5886)
Neigh time (%) = 0 (0)
Comm  time (%) = 2.08315e-05 (21.487)
Outpt time (%) = 2.0001e-05 (20.6304)
Other time (%) = 4.10038e-05 (42.294)

Nlocal:    0.25 ave 1 max 0 min
Histogram: 3 0 0 0 0 0 0 0 0 1
Nghost:    0.25 ave 1 max 0 min
Histogram: 3 0 0 0 0 0 0 0 0 1
Neighs:    0 ave 0 max 0 min
Histogram: 4 0 0 0 0 0 0 0 0 0

Total # of neighbors = 0
Ave neighs/atom = 0
Neighbor list builds = 0
Dangerous builds = 0
run 100    
WARNING: It is heavily recommended to use 'neigh_modify delay 0' with granular pair styles (../pair_gran.cpp:237)
Setting up run at Fri Mar 17 03:39:28 2023

Memory usage per processor = 4.24112 Mbytes
    Step    Atoms         KinEng            rke         Volume 
     901        1  2.4501425e-05   7.701945e-23          0.002 
CFD Coupling established at step 1000
    1000        1  3.0180243e-05  8.9444048e-23          0.002 
    1001        1  3.0240622e-05   8.957435e-23          0.002 
Loop time of 0.0001349 on 4 procs for 100 steps with 1 atoms, finish time Fri Mar 17 03:39:28 2023


Pair  time (%) = 1.1222e-05 (8.31872)
Neigh time (%) = 0 (0)
Comm  time (%) = 2.58053e-05 (19.1291)
Outpt time (%) = 6.66648e-05 (49.4177)
Other time (%) = 3.12085e-05 (23.1345)

Nlocal:    0.25 ave 1 max 0 min
Histogram: 3 0 0 0 0 0 0 0 0 1
Nghost:    0.25 ave 1 max 0 min
Histogram: 3 0 0 0 0 0 0 0 0 1
Neighs:    0 ave 0 max 0 min
Histogram: 4 0 0 0 0 0 0 0 0 0

Total # of neighbors = 0
Ave neighs/atom = 0
Neighbor list builds = 0
Dangerous builds = 0
