thermo_log              ../DEM/log_thermo.txt

#变量定义
variable            xmin           equal   0.0
variable            xmax           equal   0.1
variable            ymin           equal   0.0
variable            ymax           equal   0.1
variable            zmin           equal   0.2
variable            zmax           equal   0.4

variable            posx           equal   ${xmax}/2
variable            posx           equal   0.1/2
variable            posy           equal   ${ymax}/2
variable            posy           equal   0.1/2
variable            posz           equal   0.35


variable            vx             equal   0.0
variable            vy             equal   0.0
variable            vz             equal   0.0

variable            rhop           equal   1010

variable            timestep       equal   0.00001
variable            outSteps       equal   1000
##################################################

atom_style          granular
atom_modify         map array
communicate         single vel yes

boundary            f f f
newton              off

units               si
processors          1 1 4

region              reg block ${xmin} ${xmax} ${ymin} ${ymax} ${zmin} ${zmax} units box
region              reg block 0 ${xmax} ${ymin} ${ymax} ${zmin} ${zmax} units box
region              reg block 0 0.1 ${ymin} ${ymax} ${zmin} ${zmax} units box
region              reg block 0 0.1 0 ${ymax} ${zmin} ${zmax} units box
region              reg block 0 0.1 0 0.1 ${zmin} ${zmax} units box
region              reg block 0 0.1 0 0.1 0.2 ${zmax} units box
region              reg block 0 0.1 0 0.1 0.2 0.4 units box
# read_restart        ../DEM/restart/restart.%.60001
create_box          1 reg
Created orthogonal box = (0 0 0.2) to (0.1 0.1 0.4)
  1 by 1 by 4 MPI processor grid

neighbor            0.001 bin
# neigh_modify        delay 0
neigh_modify        delay 1000
#binsize 0.001

# Material properties required for new pair styles

fix                 m1 all property/global youngsModulus peratomtype 5.e7
fix                 m2 all property/global poissonsRatio peratomtype 0.45
fix                 m3 all property/global coefficientRestitution peratomtypepair 1 0.3
fix                 m4 all property/global coefficientFriction peratomtypepair 1 0.5

# pair style
pair_style          gran model hertz tangential history
# Hertzian without cohesion
pair_coeff          * *

# timestep, gravity
timestep            ${timestep}
timestep            1e-05

fix                 gravi all gravity 9.81 vector 0.0 0.0 -1.0

# walls
fix                 xwalls1 all wall/gran model hertz tangential history primitive type 1 xplane 0.0
fix                 xwalls2 all wall/gran model hertz tangential history primitive type 1 xplane 0.1
fix                 ywalls1 all wall/gran model hertz tangential history primitive type 1 yplane 0.0
fix                 ywalls2 all wall/gran model hertz tangential history primitive type 1 yplane 0.1
fix                 zwalls1 all wall/gran model hertz tangential history primitive type 1 zplane 0.2
# fix                 zwalls2 all wall/gran model hertz tangential history primitive type 1 zplane ${zmax}

# cfd coupling
fix                 cfd  all couple/cfd couple_every 100 mpi
couple_every as specified in LIGGGHTS is overriden by calling external program (../fix_cfd_coupling.cpp:114)
fix                 cfd2 all couple/cfd/force

#distributions for insertion
fix                 pts1 all particletemplate/multisphere 15485863                     atom_type 1                     density constant ${rhop}                     nspheres 13                     ntry 1000000                     spheres file ../DEM/data/fish                     scale 0.0004                     type 1
fix                 pts1 all particletemplate/multisphere 15485863                     atom_type 1                     density constant 1010                     nspheres 13                     ntry 1000000                     spheres file ../DEM/data/fish                     scale 0.0004                     type 1
Finished calculating properties of template
   mass = 1.272024e-03, radius of bounding sphere = 1.195864e-02, radius of equivalent sphere = 6.699285e-03
   center of mass = 0.000000e+00, 0.000000e+00, 0.000000e+00
   center of bounding sphere in body coords = -4.130837e-04, 3.186470e-06, 4.662762e-05
   Principal moments of inertia_: 1.952469e-08, 5.489290e-08, 4.149722e-08
     Eigenvector: 9.999969e-01, -1.150234e-04, 2.490127e-03
     Eigenvector: 1.160459e-04, 9.999999e-01, -4.104974e-04
     Eigenvector: -2.490080e-03, 4.107851e-04, 9.999968e-01
     Inertia tensor: 1.952483e-08, 4.081861e-12, -5.471487e-11
     Inertia tensor: 4.081861e-12, 5.489290e-08, -5.492597e-12
     Inertia tensor: -5.471487e-11, -5.492597e-12, 4.149709e-08
# scale 0.00005

fix                 pdd1 all particledistribution/discrete 15485867                     1 pts1 1.0

# region              bc block 0.0041 0.0059 0.0041 0.0059 0.012 0.0138 #                    units box

region              generate_re block 0.04 0.06 0.04 0.06 0.32 0.34                     units box

fix     ins1 all insert/pack seed 32452843         distributiontemplate pdd1         maxattempt 100000 insert_every once         orientation random         vel constant 0 0 0         overlapcheck yes all_in no         region generate_re         particles_in_region 1         ntry_mc 10000
# fix                 ins all insert/pack/custom seed 32452843 #                     distributiontemplate pdd1 #                     maxattempt 1000 insert_every once #                     vel constant ${vx} ${vy} ${vz} #                     overlapcheck no all_in no #                     region bc particles_in_region 1 #                     number_of_points 1 atP #                     ${posx} ${posy} ${posz} #                     ntry_mc 1000

#create single partciles
# create_atoms       1 single 0.05 0.05 0.35  units box
# set                atom 1 diameter 0.02 density 1500 vx 0 vy 0 vz 0

#apply nve integration to all particles that are inserted as single particles
fix                 integr all multisphere
# fix                 integr all nve/sphere

# screen output
compute             rke all erotate/sphere
thermo_style        custom step atoms ke c_rke vol
thermo              1000
thermo_modify       lost ignore norm no
compute_modify      thermo_temp dynamic yes
WARNING: Changing thermo_temp compute object. This object is deprecated and will be removed in the future. (../compute.cpp:161)

# output every N steps
dump                dmp all custom ${outSteps} ../DEM/post/dump*.liggghts                     id type x y z ix iy iz vx vy vz fx fy fz                     omegax omegay omegaz radius
dump                dmp all custom 1000 ../DEM/post/dump*.liggghts                     id type x y z ix iy iz vx vy vz fx fy fz                     omegax omegay omegaz radius
                    # cluster

run                 1
WARNING: It is heavily recommended to use 'neigh_modify delay 0' with granular pair styles (../pair_gran.cpp:237)
Setting up run at Thu May 11 22:58:59 2023

WARNING: Energy calculated for multisphere particles is currently not correct (../fix_multisphere.cpp:1334)
INFO: Particle insertion ins1: inserting every 0 steps
Memory usage per processor = 4.43933 Mbytes
    Step    Atoms         KinEng            rke         Volume 
       0        0              0              0          0.002 
INFO: Particle insertion ins1: inserted 1 particle templates (mass 1.272024e-03) at step 1
 - a total of 1 particle templates (mass 1.272024e-03) inserted so far.
       1       13  1.5301831e-12              0          0.002 
Loop time of 0.000617378 on 4 procs for 1 steps with 13 atoms, finish time Thu May 11 22:58:59 2023


Pair  time (%) = 9.7125e-07 (0.157319)
Neigh time (%) = 3.96765e-05 (6.42662)
Comm  time (%) = 8.04275e-06 (1.30273)
Outpt time (%) = 4.92645e-05 (7.97964)
Other time (%) = 0.000519423 (84.1337)

Nlocal:    3.25 ave 13 max 0 min
Histogram: 3 0 0 0 0 0 0 0 0 1
Nghost:    0 ave 0 max 0 min
Histogram: 4 0 0 0 0 0 0 0 0 0
Neighs:    0 ave 0 max 0 min
Histogram: 4 0 0 0 0 0 0 0 0 0

Total # of neighbors = 0
Ave neighs/atom = 0
Neighbor list builds = 1
Dangerous builds = 0

run 100    
WARNING: It is heavily recommended to use 'neigh_modify delay 0' with granular pair styles (../pair_gran.cpp:237)
Setting up run at Thu May 11 22:58:59 2023

WARNING: Energy calculated for multisphere particles is currently not correct (../fix_multisphere.cpp:1334)
Memory usage per processor = 4.4432 Mbytes
    Step    Atoms         KinEng            rke         Volume 
       1       13  1.5301831e-12              0          0.002 
CFD Coupling established at step 100
     101       13  6.1820927e-08              0          0.002 
Loop time of 0.000304893 on 4 procs for 100 steps with 13 atoms, finish time Thu May 11 22:58:59 2023


Pair  time (%) = 3.15352e-05 (10.343)
Neigh time (%) = 0 (0)
Comm  time (%) = 1.12855e-05 (3.70146)
Outpt time (%) = 0.000113357 (37.1793)
Other time (%) = 0.000148716 (48.7762)

Nlocal:    3.25 ave 13 max 0 min
Histogram: 3 0 0 0 0 0 0 0 0 1
Nghost:    0 ave 0 max 0 min
Histogram: 4 0 0 0 0 0 0 0 0 0
Neighs:    0 ave 0 max 0 min
Histogram: 4 0 0 0 0 0 0 0 0 0

Total # of neighbors = 0
Ave neighs/atom = 0
Neighbor list builds = 0
Dangerous builds = 0
run 100    
WARNING: It is heavily recommended to use 'neigh_modify delay 0' with granular pair styles (../pair_gran.cpp:237)
Setting up run at Thu May 11 22:59:01 2023

WARNING: Energy calculated for multisphere particles is currently not correct (../fix_multisphere.cpp:1334)
Memory usage per processor = 4.4432 Mbytes
    Step    Atoms         KinEng            rke         Volume 
     101       13  6.1820927e-08              0          0.002 
CFD Coupling established at step 200
     201       13  2.4574833e-07              0          0.002 
Loop time of 0.000377247 on 4 procs for 100 steps with 13 atoms, finish time Thu May 11 22:59:01 2023


Pair  time (%) = 3.7839e-05 (10.0303)
Neigh time (%) = 0 (0)
Comm  time (%) = 1.35802e-05 (3.59983)
Outpt time (%) = 0.000143256 (37.9741)
Other time (%) = 0.000182572 (48.3958)

Nlocal:    3.25 ave 13 max 0 min
Histogram: 3 0 0 0 0 0 0 0 0 1
Nghost:    0 ave 0 max 0 min
Histogram: 4 0 0 0 0 0 0 0 0 0
Neighs:    0 ave 0 max 0 min
Histogram: 4 0 0 0 0 0 0 0 0 0

Total # of neighbors = 0
Ave neighs/atom = 0
Neighbor list builds = 0
Dangerous builds = 0
